<?xml version="1.0" encoding="UTF-8"?>

<!-- generated on Thu 30 May 2019 13:44:30 BST by SUMO gui Version 0.30.0
<?xml version="1.0" encoding="UTF-8"?>

<configuration xmlns:xsi="http://www.w3.org/2001/XMLSchema-instance" xsi:noNamespaceSchemaLocation="http://sumo.dlr.de/xsd/sumoConfiguration.xsd">

    <input>
        <net-file value="../2_models/sellyOak/sellyOak.net.xml"/>
        <route-files value="/hardmem/ROUTEFILES/sellyOak_lo_R032_CVP000.rou.xml"/>
        <additional-files value="../2_models/sellyOak/sellyOak.det.xml"/>
    </input>

    <output>
        <tripinfo-output value="../2_models/sellyOak/../../4_simulation/test_results/tripinfo_R032_CVP000.xml"/>
    </output>

    <time>
        <begin value="0"/>
        <step-length value="0.1"/>
    </time>

    <processing>
        <ignore-junction-blocker value="60"/>
        <time-to-teleport value="-1"/>
    </processing>

    <report>
        <no-step-log value="true"/>
    </report>

    <traci_server>
        <remote-port value="8857"/>
    </traci_server>

    <random_number>
        <seed value="32"/>
    </random_number>

</configuration>
-->

<tripinfos xmlns:xsi="http://www.w3.org/2001/XMLSchema-instance" xsi:noNamespaceSchemaLocation="http://sumo.dlr.de/xsd/tripinfo_file.xsd">
</tripinfos>
